<?xml version="1.0" encoding="UTF-8"?>

<!-- generated on 2021-12-14 18:16:24 by Eclipse SUMO GUI Version 1.10.0
<configuration xmlns:xsi="http://www.w3.org/2001/XMLSchema-instance" xsi:noNamespaceSchemaLocation="http://sumo.dlr.de/xsd/sumoConfiguration.xsd">

    <input>
        <net-file value="pro.net.xml"/>
        <route-files value="pro.rou.xml"/>
        <additional-files value="pro.det.xml"/>
    </input>

    <output>
        <tripinfo-output value="tripinfo.xml"/>
    </output>

    <time>
        <begin value="0"/>
        <end value="86400"/>
    </time>

    <traci_server>
        <remote-port value="1072"/>
    </traci_server>

</configuration>
-->

<detector xmlns:xsi="http://www.w3.org/2001/XMLSchema-instance" xsi:noNamespaceSchemaLocation="http://sumo.dlr.de/xsd/det_e1_file.xsd">
    <interval begin="0.00" end="60.00" id="0" nVehContrib="1" flow="60.00" occupancy="0.57" speed="14.51" harmonicMeanSpeed="14.51" length="5.00" nVehEntered="1"/>
    <interval begin="60.00" end="120.00" id="0" nVehContrib="0" flow="0.00" occupancy="0.00" speed="-1.00" harmonicMeanSpeed="-1.00" length="-1.00" nVehEntered="0"/>
    <interval begin="120.00" end="180.00" id="0" nVehContrib="1" flow="60.00" occupancy="0.71" speed="11.77" harmonicMeanSpeed="11.77" length="5.00" nVehEntered="1"/>
    <interval begin="180.00" end="240.00" id="0" nVehContrib="1" flow="60.00" occupancy="0.62" speed="13.52" harmonicMeanSpeed="13.52" length="5.00" nVehEntered="1"/>
    <interval begin="240.00" end="300.00" id="0" nVehContrib="3" flow="180.00" occupancy="1.91" speed="13.11" harmonicMeanSpeed="13.09" length="5.00" nVehEntered="3"/>
    <interval begin="300.00" end="360.00" id="0" nVehContrib="3" flow="180.00" occupancy="1.81" speed="13.96" harmonicMeanSpeed="13.79" length="5.00" nVehEntered="3"/>
    <interval begin="360.00" end="420.00" id="0" nVehContrib="1" flow="60.00" occupancy="0.57" speed="14.73" harmonicMeanSpeed="14.73" length="5.00" nVehEntered="1"/>
    <interval begin="420.00" end="480.00" id="0" nVehContrib="3" flow="180.00" occupancy="1.80" speed="13.94" harmonicMeanSpeed="13.90" length="5.00" nVehEntered="3"/>
    <interval begin="480.00" end="540.00" id="0" nVehContrib="2" flow="120.00" occupancy="1.21" speed="13.84" harmonicMeanSpeed="13.82" length="5.00" nVehEntered="2"/>
    <interval begin="540.00" end="600.00" id="0" nVehContrib="3" flow="180.00" occupancy="1.71" speed="14.62" harmonicMeanSpeed="14.59" length="5.00" nVehEntered="3"/>
    <interval begin="600.00" end="660.00" id="0" nVehContrib="4" flow="240.00" occupancy="2.43" speed="13.85" harmonicMeanSpeed="13.74" length="5.00" nVehEntered="4"/>
    <interval begin="660.00" end="720.00" id="0" nVehContrib="2" flow="120.00" occupancy="1.21" speed="13.79" harmonicMeanSpeed="13.78" length="5.00" nVehEntered="2"/>
    <interval begin="720.00" end="780.00" id="0" nVehContrib="1" flow="60.00" occupancy="0.56" speed="14.83" harmonicMeanSpeed="14.83" length="5.00" nVehEntered="1"/>
    <interval begin="780.00" end="840.00" id="0" nVehContrib="2" flow="120.00" occupancy="1.18" speed="14.11" harmonicMeanSpeed="14.11" length="5.00" nVehEntered="2"/>
    <interval begin="840.00" end="900.00" id="0" nVehContrib="0" flow="0.00" occupancy="0.00" speed="-1.00" harmonicMeanSpeed="-1.00" length="-1.00" nVehEntered="0"/>
    <interval begin="900.00" end="960.00" id="0" nVehContrib="1" flow="60.00" occupancy="0.58" speed="14.47" harmonicMeanSpeed="14.47" length="5.00" nVehEntered="1"/>
    <interval begin="960.00" end="1020.00" id="0" nVehContrib="1" flow="60.00" occupancy="0.51" speed="16.41" harmonicMeanSpeed="16.41" length="5.00" nVehEntered="1"/>
    <interval begin="1020.00" end="1080.00" id="0" nVehContrib="3" flow="180.00" occupancy="1.81" speed="13.88" harmonicMeanSpeed="13.81" length="5.00" nVehEntered="3"/>
    <interval begin="1080.00" end="1140.00" id="0" nVehContrib="2" flow="120.00" occupancy="1.24" speed="13.40" harmonicMeanSpeed="13.39" length="5.00" nVehEntered="2"/>
    <interval begin="1140.00" end="1200.00" id="0" nVehContrib="0" flow="0.00" occupancy="0.00" speed="-1.00" harmonicMeanSpeed="-1.00" length="-1.00" nVehEntered="0"/>
    <interval begin="1200.00" end="1260.00" id="0" nVehContrib="0" flow="0.00" occupancy="0.00" speed="-1.00" harmonicMeanSpeed="-1.00" length="-1.00" nVehEntered="0"/>
    <interval begin="1260.00" end="1320.00" id="0" nVehContrib="1" flow="60.00" occupancy="0.53" speed="15.68" harmonicMeanSpeed="15.68" length="5.00" nVehEntered="1"/>
    <interval begin="1320.00" end="1380.00" id="0" nVehContrib="1" flow="60.00" occupancy="0.62" speed="13.48" harmonicMeanSpeed="13.48" length="5.00" nVehEntered="1"/>
    <interval begin="1380.00" end="1440.00" id="0" nVehContrib="1" flow="60.00" occupancy="0.75" speed="11.09" harmonicMeanSpeed="11.09" length="5.00" nVehEntered="1"/>
    <interval begin="1440.00" end="1500.00" id="0" nVehContrib="1" flow="60.00" occupancy="0.68" speed="12.30" harmonicMeanSpeed="12.30" length="5.00" nVehEntered="1"/>
    <interval begin="1500.00" end="1560.00" id="0" nVehContrib="2" flow="120.00" occupancy="1.32" speed="12.63" harmonicMeanSpeed="12.60" length="5.00" nVehEntered="2"/>
    <interval begin="1560.00" end="1620.00" id="0" nVehContrib="0" flow="0.00" occupancy="0.00" speed="-1.00" harmonicMeanSpeed="-1.00" length="-1.00" nVehEntered="0"/>
    <interval begin="1620.00" end="1680.00" id="0" nVehContrib="2" flow="120.00" occupancy="1.19" speed="14.25" harmonicMeanSpeed="13.96" length="5.00" nVehEntered="2"/>
    <interval begin="1680.00" end="1740.00" id="0" nVehContrib="2" flow="120.00" occupancy="1.13" speed="14.78" harmonicMeanSpeed="14.74" length="5.00" nVehEntered="2"/>
    <interval begin="1740.00" end="1800.00" id="0" nVehContrib="5" flow="300.00" occupancy="3.28" speed="12.80" harmonicMeanSpeed="12.69" length="5.00" nVehEntered="5"/>
    <interval begin="1800.00" end="1860.00" id="0" nVehContrib="2" flow="120.00" occupancy="1.26" speed="13.41" harmonicMeanSpeed="13.27" length="5.00" nVehEntered="2"/>
    <interval begin="1860.00" end="1920.00" id="0" nVehContrib="1" flow="60.00" occupancy="0.84" speed="9.94" harmonicMeanSpeed="9.94" length="5.00" nVehEntered="1"/>
    <interval begin="1920.00" end="1980.00" id="0" nVehContrib="2" flow="120.00" occupancy="1.34" speed="12.46" harmonicMeanSpeed="12.44" length="5.00" nVehEntered="2"/>
    <interval begin="1980.00" end="2040.00" id="0" nVehContrib="3" flow="180.00" occupancy="1.74" speed="14.46" harmonicMeanSpeed="14.40" length="5.00" nVehEntered="3"/>
    <interval begin="2040.00" end="2100.00" id="0" nVehContrib="1" flow="60.00" occupancy="0.60" speed="13.97" harmonicMeanSpeed="13.97" length="5.00" nVehEntered="1"/>
    <interval begin="2100.00" end="2160.00" id="0" nVehContrib="2" flow="120.00" occupancy="1.35" speed="12.43" harmonicMeanSpeed="12.39" length="5.00" nVehEntered="2"/>
    <interval begin="2160.00" end="2220.00" id="0" nVehContrib="3" flow="180.00" occupancy="1.66" speed="15.05" harmonicMeanSpeed="15.04" length="5.00" nVehEntered="3"/>
    <interval begin="2220.00" end="2280.00" id="0" nVehContrib="3" flow="180.00" occupancy="1.92" speed="13.11" harmonicMeanSpeed="13.04" length="5.00" nVehEntered="3"/>
    <interval begin="2280.00" end="2340.00" id="0" nVehContrib="1" flow="60.00" occupancy="0.60" speed="13.82" harmonicMeanSpeed="13.82" length="5.00" nVehEntered="1"/>
    <interval begin="2340.00" end="2400.00" id="0" nVehContrib="2" flow="120.00" occupancy="1.32" speed="12.67" harmonicMeanSpeed="12.67" length="5.00" nVehEntered="2"/>
    <interval begin="2400.00" end="2460.00" id="0" nVehContrib="0" flow="0.00" occupancy="0.00" speed="-1.00" harmonicMeanSpeed="-1.00" length="-1.00" nVehEntered="0"/>
    <interval begin="2460.00" end="2520.00" id="0" nVehContrib="3" flow="180.00" occupancy="1.77" speed="14.15" harmonicMeanSpeed="14.12" length="5.00" nVehEntered="3"/>
    <interval begin="2520.00" end="2580.00" id="0" nVehContrib="2" flow="120.00" occupancy="1.08" speed="15.43" harmonicMeanSpeed="15.41" length="5.00" nVehEntered="2"/>
    <interval begin="2580.00" end="2640.00" id="0" nVehContrib="2" flow="120.00" occupancy="1.33" speed="12.51" harmonicMeanSpeed="12.49" length="5.00" nVehEntered="2"/>
    <interval begin="2640.00" end="2700.00" id="0" nVehContrib="5" flow="300.00" occupancy="3.07" speed="13.60" harmonicMeanSpeed="13.57" length="5.00" nVehEntered="5"/>
    <interval begin="2700.00" end="2760.00" id="0" nVehContrib="1" flow="60.00" occupancy="0.53" speed="15.78" harmonicMeanSpeed="15.78" length="5.00" nVehEntered="1"/>
    <interval begin="2760.00" end="2820.00" id="0" nVehContrib="3" flow="180.00" occupancy="1.81" speed="13.85" harmonicMeanSpeed="13.84" length="5.00" nVehEntered="3"/>
    <interval begin="2820.00" end="2880.00" id="0" nVehContrib="1" flow="60.00" occupancy="0.54" speed="15.52" harmonicMeanSpeed="15.52" length="5.00" nVehEntered="1"/>
    <interval begin="2880.00" end="2940.00" id="0" nVehContrib="2" flow="120.00" occupancy="1.26" speed="13.43" harmonicMeanSpeed="13.20" length="5.00" nVehEntered="2"/>
    <interval begin="2940.00" end="3000.00" id="0" nVehContrib="3" flow="180.00" occupancy="1.68" speed="15.00" harmonicMeanSpeed="14.91" length="5.00" nVehEntered="3"/>
    <interval begin="3000.00" end="3060.00" id="0" nVehContrib="3" flow="180.00" occupancy="1.91" speed="13.13" harmonicMeanSpeed="13.08" length="5.00" nVehEntered="3"/>
    <interval begin="3060.00" end="3120.00" id="0" nVehContrib="5" flow="300.00" occupancy="3.20" speed="13.11" harmonicMeanSpeed="13.01" length="5.00" nVehEntered="5"/>
    <interval begin="3120.00" end="3180.00" id="0" nVehContrib="3" flow="180.00" occupancy="2.03" speed="12.37" harmonicMeanSpeed="12.31" length="5.00" nVehEntered="3"/>
    <interval begin="3180.00" end="3240.00" id="0" nVehContrib="4" flow="240.00" occupancy="2.45" speed="13.88" harmonicMeanSpeed="13.59" length="5.00" nVehEntered="4"/>
    <interval begin="3240.00" end="3300.00" id="0" nVehContrib="3" flow="180.00" occupancy="1.88" speed="13.51" harmonicMeanSpeed="13.33" length="5.00" nVehEntered="3"/>
    <interval begin="3300.00" end="3360.00" id="0" nVehContrib="1" flow="60.00" occupancy="0.64" speed="13.03" harmonicMeanSpeed="13.03" length="5.00" nVehEntered="1"/>
    <interval begin="3360.00" end="3420.00" id="0" nVehContrib="2" flow="120.00" occupancy="1.31" speed="12.81" harmonicMeanSpeed="12.73" length="5.00" nVehEntered="2"/>
    <interval begin="3420.00" end="3480.00" id="0" nVehContrib="1" flow="60.00" occupancy="0.59" speed="14.16" harmonicMeanSpeed="14.16" length="5.00" nVehEntered="1"/>
    <interval begin="3480.00" end="3540.00" id="0" nVehContrib="3" flow="180.00" occupancy="1.63" speed="15.35" harmonicMeanSpeed="15.34" length="5.00" nVehEntered="3"/>
    <interval begin="3540.00" end="3600.00" id="0" nVehContrib="1" flow="60.00" occupancy="0.61" speed="13.67" harmonicMeanSpeed="13.67" length="5.00" nVehEntered="1"/>
    <interval begin="3600.00" end="3660.00" id="0" nVehContrib="4" flow="240.00" occupancy="2.37" speed="14.07" harmonicMeanSpeed="14.04" length="5.00" nVehEntered="4"/>
    <interval begin="3660.00" end="3720.00" id="0" nVehContrib="2" flow="120.00" occupancy="1.26" speed="13.33" harmonicMeanSpeed="13.27" length="5.00" nVehEntered="2"/>
    <interval begin="3720.00" end="3760.00" id="0" nVehContrib="1" flow="90.00" occupancy="1.00" speed="12.55" harmonicMeanSpeed="12.55" length="5.00" nVehEntered="1"/>
</detector>
