<?xml version="1.0" encoding="UTF-8"?>

<!-- generated on 2021-12-14 18:16:23 by Eclipse SUMO GUI Version 1.10.0
<configuration xmlns:xsi="http://www.w3.org/2001/XMLSchema-instance" xsi:noNamespaceSchemaLocation="http://sumo.dlr.de/xsd/sumoConfiguration.xsd">

    <input>
        <net-file value="pro.net.xml"/>
        <route-files value="pro.rou.xml"/>
        <additional-files value="pro.det.xml"/>
    </input>

    <output>
        <tripinfo-output value="tripinfo.xml"/>
    </output>

    <time>
        <begin value="0"/>
        <end value="86400"/>
    </time>

    <traci_server>
        <remote-port value="1072"/>
    </traci_server>

</configuration>
-->

<tripinfos xmlns:xsi="http://www.w3.org/2001/XMLSchema-instance" xsi:noNamespaceSchemaLocation="http://sumo.dlr.de/xsd/tripinfo_file.xsd">
    <tripinfo id="sides_8" depart="11.00" departLane="e14_0" departPos="5.10" departSpeed="0.00" departDelay="2.00" arrival="70.00" arrivalLane="e5_0" arrivalPos="259.58" arrivalSpeed="12.93" duration="59.00" routeLength="609.86" waitingTime="0.00" waitingCount="0" stopTime="0.00" timeLoss="11.91" rerouteNo="0" devices="tripinfo_sides_8" vType="typeNW" speedFactor="0.94" vaporized=""/>
    <tripinfo id="side_10" depart="16.00" departLane="e1_0" departPos="5.10" departSpeed="0.00" departDelay="3.00" arrival="79.00" arrivalLane="e13_0" arrivalPos="130.05" arrivalSpeed="15.03" duration="63.00" routeLength="716.52" waitingTime="0.00" waitingCount="0" stopTime="0.00" timeLoss="14.99" rerouteNo="0" devices="tripinfo_side_10" vType="typeEN" speedFactor="1.09" vaporized=""/>
    <tripinfo id="left_0" depart="0.00" departLane="e1_0" departPos="5.10" departSpeed="0.00" departDelay="0.00" arrival="80.00" arrivalLane="e5_0" arrivalPos="259.58" arrivalSpeed="14.75" duration="80.00" routeLength="971.39" waitingTime="0.00" waitingCount="0" stopTime="0.00" timeLoss="13.56" rerouteNo="0" devices="tripinfo_left_0" vType="typeWE" speedFactor="1.06" vaporized=""/>
    <tripinfo id="sides_17" depart="23.00" departLane="e14_0" departPos="5.10" departSpeed="0.00" departDelay="0.00" arrival="85.00" arrivalLane="e5_0" arrivalPos="259.58" arrivalSpeed="12.90" duration="62.00" routeLength="609.86" waitingTime="0.00" waitingCount="0" stopTime="0.00" timeLoss="14.50" rerouteNo="0" devices="tripinfo_sides_17" vType="typeNW" speedFactor="0.94" vaporized=""/>
    <tripinfo id="right_1" depart="1.00" departLane="e10_0" departPos="5.10" departSpeed="0.00" departDelay="0.00" arrival="87.00" arrivalLane="e8_0" arrivalPos="165.01" arrivalSpeed="12.82" duration="86.00" routeLength="973.54" waitingTime="0.00" waitingCount="0" stopTime="0.00" timeLoss="11.33" rerouteNo="0" devices="tripinfo_right_1" vType="typeWE" speedFactor="0.94" vaporized=""/>
    <tripinfo id="side_15" depart="21.00" departLane="e1_0" departPos="5.10" departSpeed="0.00" departDelay="2.00" arrival="91.00" arrivalLane="e13_0" arrivalPos="130.05" arrivalSpeed="12.95" duration="70.00" routeLength="716.52" waitingTime="0.00" waitingCount="0" stopTime="0.00" timeLoss="14.03" rerouteNo="0" devices="tripinfo_side_15" vType="typeEN" speedFactor="0.93" vaporized=""/>
    <tripinfo id="sides_18" depart="29.00" departLane="e14_0" departPos="5.10" departSpeed="0.00" departDelay="0.00" arrival="92.00" arrivalLane="e5_0" arrivalPos="259.58" arrivalSpeed="13.00" duration="63.00" routeLength="609.86" waitingTime="0.00" waitingCount="0" stopTime="0.00" timeLoss="15.88" rerouteNo="0" devices="tripinfo_sides_18" vType="typeNW" speedFactor="0.94" vaporized=""/>
    <tripinfo id="sides_22" depart="36.00" departLane="e14_0" departPos="5.10" departSpeed="0.00" departDelay="0.00" arrival="95.00" arrivalLane="e5_0" arrivalPos="259.58" arrivalSpeed="13.53" duration="59.00" routeLength="609.86" waitingTime="0.00" waitingCount="0" stopTime="0.00" timeLoss="13.28" rerouteNo="0" devices="tripinfo_sides_22" vType="typeNW" speedFactor="0.98" vaporized=""/>
    <tripinfo id="right_13" depart="26.00" departLane="e10_0" departPos="5.10" departSpeed="0.00" departDelay="8.00" arrival="102.00" arrivalLane="e8_0" arrivalPos="165.01" arrivalSpeed="15.57" duration="76.00" routeLength="973.54" waitingTime="0.00" waitingCount="0" stopTime="0.00" timeLoss="14.02" rerouteNo="0" devices="tripinfo_right_13" vType="typeWE" speedFactor="1.12" vaporized=""/>
    <tripinfo id="sides_27" depart="42.00" departLane="e14_0" departPos="5.10" departSpeed="0.00" departDelay="0.00" arrival="102.00" arrivalLane="e5_0" arrivalPos="259.58" arrivalSpeed="13.25" duration="60.00" routeLength="609.86" waitingTime="0.00" waitingCount="0" stopTime="0.00" timeLoss="13.62" rerouteNo="0" devices="tripinfo_sides_27" vType="typeNW" speedFactor="0.95" vaporized=""/>
    <tripinfo id="up_4" depart="11.00" departLane="e10_0" departPos="5.10" departSpeed="0.00" departDelay="9.00" arrival="110.00" arrivalLane="e13_1" arrivalPos="130.05" arrivalSpeed="14.40" duration="99.00" routeLength="737.30" waitingTime="21.00" waitingCount="1" stopTime="0.00" timeLoss="47.19" rerouteNo="0" devices="tripinfo_up_4" vType="typeWN" speedFactor="1.03" vaporized=""/>
    <tripinfo id="right_19" depart="36.00" departLane="e10_0" departPos="5.10" departSpeed="0.00" departDelay="4.00" arrival="110.00" arrivalLane="e8_0" arrivalPos="165.01" arrivalSpeed="16.17" duration="74.00" routeLength="973.54" waitingTime="0.00" waitingCount="0" stopTime="0.00" timeLoss="13.62" rerouteNo="0" devices="tripinfo_right_19" vType="typeWE" speedFactor="1.16" vaporized=""/>
    <tripinfo id="side_23" depart="38.00" departLane="e1_0" departPos="5.10" departSpeed="0.00" departDelay="0.00" arrival="110.00" arrivalLane="e13_0" arrivalPos="130.05" arrivalSpeed="12.39" duration="72.00" routeLength="716.52" waitingTime="0.00" waitingCount="0" stopTime="0.00" timeLoss="13.42" rerouteNo="0" devices="tripinfo_side_23" vType="typeEN" speedFactor="0.89" vaporized=""/>
    <tripinfo id="sides_30" depart="52.00" departLane="e14_0" departPos="5.10" departSpeed="0.00" departDelay="0.00" arrival="110.00" arrivalLane="e5_0" arrivalPos="259.58" arrivalSpeed="16.45" duration="58.00" routeLength="609.86" waitingTime="0.00" waitingCount="0" stopTime="0.00" timeLoss="20.54" rerouteNo="0" devices="tripinfo_sides_30" vType="typeNW" speedFactor="1.18" vaporized=""/>
    <tripinfo id="up_3" depart="6.00" departLane="e10_0" departPos="5.10" departSpeed="0.00" departDelay="5.00" arrival="111.00" arrivalLane="e13_0" arrivalPos="130.05" arrivalSpeed="12.63" duration="105.00" routeLength="742.22" waitingTime="26.00" waitingCount="1" stopTime="0.00" timeLoss="55.70" rerouteNo="0" devices="tripinfo_up_3" vType="typeWN" speedFactor="1.08" vaporized=""/>
    <tripinfo id="up_12" depart="21.00" departLane="e10_0" departPos="5.10" departSpeed="0.00" departDelay="4.00" arrival="112.00" arrivalLane="e13_1" arrivalPos="130.05" arrivalSpeed="14.53" duration="91.00" routeLength="737.30" waitingTime="11.00" waitingCount="1" stopTime="0.00" timeLoss="39.55" rerouteNo="0" devices="tripinfo_up_12" vType="typeWN" speedFactor="1.05" vaporized=""/>
    <tripinfo id="up_9" depart="16.00" departLane="e10_0" departPos="5.10" departSpeed="0.00" departDelay="4.00" arrival="115.00" arrivalLane="e13_0" arrivalPos="130.05" arrivalSpeed="11.71" duration="99.00" routeLength="742.22" waitingTime="15.00" waitingCount="1" stopTime="0.00" timeLoss="36.04" rerouteNo="0" devices="tripinfo_up_9" vType="typeWN" speedFactor="0.86" vaporized=""/>
    <tripinfo id="up_14" depart="31.00" departLane="e10_0" departPos="5.10" departSpeed="0.00" departDelay="13.00" arrival="115.00" arrivalLane="e13_1" arrivalPos="130.05" arrivalSpeed="13.53" duration="84.00" routeLength="742.22" waitingTime="4.00" waitingCount="1" stopTime="0.00" timeLoss="29.49" rerouteNo="0" devices="tripinfo_up_14" vType="typeWN" speedFactor="0.99" vaporized=""/>
    <tripinfo id="sides_31" depart="57.00" departLane="e14_0" departPos="5.10" departSpeed="0.00" departDelay="4.00" arrival="115.00" arrivalLane="e5_0" arrivalPos="259.58" arrivalSpeed="15.93" duration="58.00" routeLength="609.86" waitingTime="0.00" waitingCount="0" stopTime="0.00" timeLoss="19.61" rerouteNo="0" devices="tripinfo_sides_31" vType="typeNW" speedFactor="1.15" vaporized=""/>
    <tripinfo id="side_26" depart="48.00" departLane="e1_0" departPos="5.10" departSpeed="0.00" departDelay="6.00" arrival="119.00" arrivalLane="e13_1" arrivalPos="130.05" arrivalSpeed="12.83" duration="71.00" routeLength="719.33" waitingTime="0.00" waitingCount="0" stopTime="0.00" timeLoss="14.39" rerouteNo="0" devices="tripinfo_side_26" vType="typeEN" speedFactor="0.92" vaporized=""/>
    <tripinfo id="right_21" depart="42.00" departLane="e10_0" departPos="5.10" departSpeed="0.00" departDelay="6.00" arrival="123.00" arrivalLane="e8_0" arrivalPos="165.01" arrivalSpeed="13.85" duration="81.00" routeLength="973.54" waitingTime="0.00" waitingCount="0" stopTime="0.00" timeLoss="11.95" rerouteNo="0" devices="tripinfo_right_21" vType="typeWE" speedFactor="1.01" vaporized=""/>
    <tripinfo id="side_25" depart="43.00" departLane="e1_0" departPos="5.10" departSpeed="0.00" departDelay="2.00" arrival="127.00" arrivalLane="e13_0" arrivalPos="130.05" arrivalSpeed="12.21" duration="84.00" routeLength="716.52" waitingTime="1.00" waitingCount="1" stopTime="0.00" timeLoss="24.45" rerouteNo="0" devices="tripinfo_side_25" vType="typeEN" speedFactor="0.87" vaporized=""/>
    <tripinfo id="up_37" depart="68.00" departLane="e10_0" departPos="5.10" departSpeed="0.00" departDelay="3.00" arrival="129.00" arrivalLane="e13_0" arrivalPos="130.05" arrivalSpeed="15.74" duration="61.00" routeLength="742.22" waitingTime="0.00" waitingCount="0" stopTime="0.00" timeLoss="15.18" rerouteNo="0" devices="tripinfo_up_37" vType="typeWN" speedFactor="1.18" vaporized=""/>
    <tripinfo id="right_33" depart="58.00" departLane="e10_0" departPos="5.10" departSpeed="0.00" departDelay="0.00" arrival="132.00" arrivalLane="e8_1" arrivalPos="165.01" arrivalSpeed="16.22" duration="74.00" routeLength="973.54" waitingTime="0.00" waitingCount="0" stopTime="0.00" timeLoss="14.39" rerouteNo="0" devices="tripinfo_right_33" vType="typeWE" speedFactor="1.17" vaporized=""/>
    <tripinfo id="sides_41" depart="72.00" departLane="e14_0" departPos="5.10" departSpeed="0.00" departDelay="1.00" arrival="132.00" arrivalLane="e5_0" arrivalPos="259.58" arrivalSpeed="13.08" duration="60.00" routeLength="609.86" waitingTime="0.00" waitingCount="0" stopTime="0.00" timeLoss="13.46" rerouteNo="0" devices="tripinfo_sides_41" vType="typeNW" speedFactor="0.96" vaporized=""/>
    <tripinfo id="sides_43" depart="77.00" departLane="e14_0" departPos="5.10" departSpeed="0.00" departDelay="5.00" arrival="136.00" arrivalLane="e5_0" arrivalPos="259.58" arrivalSpeed="14.49" duration="59.00" routeLength="609.86" waitingTime="1.00" waitingCount="1" stopTime="0.00" timeLoss="15.95" rerouteNo="0" devices="tripinfo_sides_43" vType="typeNW" speedFactor="1.04" vaporized=""/>
    <tripinfo id="side_40" depart="70.00" departLane="e1_0" departPos="5.10" departSpeed="0.00" departDelay="0.00" arrival="137.00" arrivalLane="e13_0" arrivalPos="130.05" arrivalSpeed="14.13" duration="67.00" routeLength="716.52" waitingTime="0.00" waitingCount="0" stopTime="0.00" timeLoss="16.55" rerouteNo="0" devices="tripinfo_side_40" vType="typeEN" speedFactor="1.03" vaporized=""/>
    <tripinfo id="right_24" depart="47.00" departLane="e10_0" departPos="5.10" departSpeed="0.00" departDelay="6.00" arrival="142.00" arrivalLane="e8_0" arrivalPos="165.01" arrivalSpeed="11.43" duration="95.00" routeLength="973.54" waitingTime="0.00" waitingCount="0" stopTime="0.00" timeLoss="9.94" rerouteNo="0" devices="tripinfo_right_24" vType="typeWE" speedFactor="0.83" vaporized=""/>
    <tripinfo id="sides_47" depart="83.00" departLane="e14_0" departPos="5.10" departSpeed="0.00" departDelay="6.00" arrival="145.00" arrivalLane="e5_0" arrivalPos="259.58" arrivalSpeed="12.53" duration="62.00" routeLength="609.86" waitingTime="0.00" waitingCount="0" stopTime="0.00" timeLoss="12.60" rerouteNo="0" devices="tripinfo_sides_47" vType="typeNW" speedFactor="0.90" vaporized=""/>
    <tripinfo id="right_36" depart="63.00" departLane="e10_0" departPos="5.10" departSpeed="0.00" departDelay="2.00" arrival="146.00" arrivalLane="e8_0" arrivalPos="165.01" arrivalSpeed="13.48" duration="83.00" routeLength="973.54" waitingTime="0.00" waitingCount="0" stopTime="0.00" timeLoss="10.90" rerouteNo="0" devices="tripinfo_right_36" vType="typeWE" speedFactor="0.97" vaporized=""/>
    <tripinfo id="side_46" depart="79.00" departLane="e1_0" departPos="5.10" departSpeed="0.00" departDelay="4.00" arrival="146.00" arrivalLane="e13_0" arrivalPos="130.05" arrivalSpeed="13.62" duration="67.00" routeLength="716.52" waitingTime="0.00" waitingCount="0" stopTime="0.00" timeLoss="14.53" rerouteNo="0" devices="tripinfo_side_46" vType="typeEN" speedFactor="1.00" vaporized=""/>
    <tripinfo id="right_38" depart="73.00" departLane="e10_0" departPos="5.10" departSpeed="0.00" departDelay="6.00" arrival="149.00" arrivalLane="e8_0" arrivalPos="165.01" arrivalSpeed="15.37" duration="76.00" routeLength="973.54" waitingTime="0.00" waitingCount="0" stopTime="0.00" timeLoss="11.93" rerouteNo="0" devices="tripinfo_right_38" vType="typeWE" speedFactor="1.10" vaporized=""/>
    <tripinfo id="up_39" depart="78.00" departLane="e10_0" departPos="5.10" departSpeed="0.00" departDelay="10.00" arrival="149.00" arrivalLane="e13_0" arrivalPos="130.05" arrivalSpeed="12.40" duration="71.00" routeLength="742.22" waitingTime="0.00" waitingCount="0" stopTime="0.00" timeLoss="10.92" rerouteNo="0" devices="tripinfo_up_39" vType="typeWN" speedFactor="0.90" vaporized=""/>
    <tripinfo id="side_48" depart="84.00" departLane="e1_0" departPos="5.10" departSpeed="0.00" departDelay="6.00" arrival="156.00" arrivalLane="e13_0" arrivalPos="130.05" arrivalSpeed="12.21" duration="72.00" routeLength="716.52" waitingTime="0.00" waitingCount="0" stopTime="0.00" timeLoss="13.18" rerouteNo="0" devices="tripinfo_side_48" vType="typeEN" speedFactor="0.88" vaporized=""/>
    <tripinfo id="sides_58" depart="97.00" departLane="e14_0" departPos="5.10" departSpeed="0.00" departDelay="0.00" arrival="156.00" arrivalLane="e5_0" arrivalPos="259.58" arrivalSpeed="13.97" duration="59.00" routeLength="609.86" waitingTime="0.00" waitingCount="0" stopTime="0.00" timeLoss="16.06" rerouteNo="0" devices="tripinfo_sides_58" vType="typeNW" speedFactor="1.02" vaporized=""/>
    <tripinfo id="up_52" depart="94.00" departLane="e10_0" departPos="5.10" departSpeed="0.00" departDelay="9.00" arrival="159.00" arrivalLane="e13_0" arrivalPos="130.05" arrivalSpeed="13.92" duration="65.00" routeLength="742.22" waitingTime="0.00" waitingCount="0" stopTime="0.00" timeLoss="12.15" rerouteNo="0" devices="tripinfo_up_52" vType="typeWN" speedFactor="1.02" vaporized=""/>
    <tripinfo id="right_42" depart="83.00" departLane="e10_0" departPos="5.10" departSpeed="0.00" departDelay="11.00" arrival="160.00" arrivalLane="e8_0" arrivalPos="165.01" arrivalSpeed="15.04" duration="77.00" routeLength="973.54" waitingTime="0.00" waitingCount="0" stopTime="0.00" timeLoss="12.64" rerouteNo="0" devices="tripinfo_right_42" vType="typeWE" speedFactor="1.09" vaporized=""/>
    <tripinfo id="curve_6" depart="11.00" departLane="e1_0" departPos="5.10" departSpeed="0.00" departDelay="6.00" arrival="161.00" arrivalLane="e8_1" arrivalPos="165.01" arrivalSpeed="14.59" duration="150.00" routeLength="974.58" waitingTime="50.00" waitingCount="1" stopTime="0.00" timeLoss="83.41" rerouteNo="0" devices="tripinfo_curve_6" vType="typeEE" speedFactor="1.05" vaporized=""/>
    <tripinfo id="curve_5" depart="6.00" departLane="e1_0" departPos="5.10" departSpeed="0.00" departDelay="3.00" arrival="163.00" arrivalLane="e8_1" arrivalPos="165.01" arrivalSpeed="11.42" duration="157.00" routeLength="974.58" waitingTime="49.00" waitingCount="1" stopTime="0.00" timeLoss="72.57" rerouteNo="0" devices="tripinfo_curve_5" vType="typeEE" speedFactor="0.83" vaporized=""/>
    <tripinfo id="right_45" depart="88.00" departLane="e10_0" departPos="5.10" departSpeed="0.00" departDelay="14.00" arrival="165.00" arrivalLane="e8_0" arrivalPos="165.01" arrivalSpeed="15.18" duration="77.00" routeLength="973.54" waitingTime="0.00" waitingCount="0" stopTime="0.00" timeLoss="12.94" rerouteNo="0" devices="tripinfo_right_45" vType="typeWE" speedFactor="1.09" vaporized=""/>
    <tripinfo id="side_60" depart="104.00" departLane="e1_0" departPos="5.10" departSpeed="0.00" departDelay="4.00" arrival="168.00" arrivalLane="e13_0" arrivalPos="130.05" arrivalSpeed="15.10" duration="64.00" routeLength="716.52" waitingTime="0.00" waitingCount="0" stopTime="0.00" timeLoss="15.55" rerouteNo="0" devices="tripinfo_side_60" vType="typeEN" speedFactor="1.08" vaporized=""/>
    <tripinfo id="side_51" depart="94.00" departLane="e1_0" departPos="5.10" departSpeed="0.00" departDelay="9.00" arrival="170.00" arrivalLane="e13_1" arrivalPos="130.05" arrivalSpeed="13.44" duration="76.00" routeLength="719.33" waitingTime="2.00" waitingCount="1" stopTime="0.00" timeLoss="31.50" rerouteNo="0" devices="tripinfo_side_51" vType="typeEN" speedFactor="1.17" vaporized=""/>
    <tripinfo id="curve_20" depart="32.00" departLane="e1_0" departPos="5.10" departSpeed="0.00" departDelay="0.00" arrival="178.00" arrivalLane="e8_1" arrivalPos="165.01" arrivalSpeed="14.23" duration="146.00" routeLength="974.58" waitingTime="42.00" waitingCount="2" stopTime="0.00" timeLoss="77.18" rerouteNo="0" devices="tripinfo_curve_20" vType="typeEE" speedFactor="1.02" vaporized=""/>
    <tripinfo id="curve_16" depart="26.00" departLane="e1_0" departPos="5.10" departSpeed="0.00" departDelay="4.00" arrival="180.00" arrivalLane="e8_1" arrivalPos="165.01" arrivalSpeed="12.06" duration="154.00" routeLength="974.58" waitingTime="43.00" waitingCount="2" stopTime="0.00" timeLoss="74.64" rerouteNo="0" devices="tripinfo_curve_16" vType="typeEE" speedFactor="0.88" vaporized=""/>
    <tripinfo id="left_50" depart="89.00" departLane="e1_0" departPos="5.10" departSpeed="0.00" departDelay="5.00" arrival="182.00" arrivalLane="e5_0" arrivalPos="259.58" arrivalSpeed="11.70" duration="93.00" routeLength="971.39" waitingTime="0.00" waitingCount="0" stopTime="0.00" timeLoss="11.08" rerouteNo="0" devices="tripinfo_left_50" vType="typeWE" speedFactor="0.85" vaporized=""/>
    <tripinfo id="right_54" depart="99.00" departLane="e10_0" departPos="5.10" departSpeed="0.00" departDelay="8.00" arrival="182.00" arrivalLane="e8_0" arrivalPos="165.01" arrivalSpeed="14.01" duration="83.00" routeLength="973.54" waitingTime="0.00" waitingCount="0" stopTime="0.00" timeLoss="12.96" rerouteNo="0" devices="tripinfo_right_54" vType="typeWE" speedFactor="1.00" vaporized=""/>
    <tripinfo id="sides_66" depart="121.00" departLane="e14_0" departPos="5.10" departSpeed="0.00" departDelay="0.00" arrival="184.00" arrivalLane="e5_0" arrivalPos="259.58" arrivalSpeed="12.40" duration="63.00" routeLength="609.86" waitingTime="0.00" waitingCount="0" stopTime="0.00" timeLoss="14.21" rerouteNo="0" devices="tripinfo_sides_66" vType="typeNW" speedFactor="0.91" vaporized=""/>
    <tripinfo id="right_55" depart="105.00" departLane="e10_0" departPos="5.10" departSpeed="0.00" departDelay="12.00" arrival="187.00" arrivalLane="e8_0" arrivalPos="165.01" arrivalSpeed="13.71" duration="82.00" routeLength="973.54" waitingTime="0.00" waitingCount="0" stopTime="0.00" timeLoss="12.12" rerouteNo="0" devices="tripinfo_right_55" vType="typeWE" speedFactor="1.00" vaporized=""/>
    <tripinfo id="right_57" depart="115.00" departLane="e10_0" departPos="5.10" departSpeed="0.00" departDelay="21.00" arrival="190.00" arrivalLane="e8_0" arrivalPos="165.01" arrivalSpeed="15.73" duration="75.00" routeLength="973.54" waitingTime="0.00" waitingCount="0" stopTime="0.00" timeLoss="13.76" rerouteNo="0" devices="tripinfo_right_57" vType="typeWE" speedFactor="1.14" vaporized=""/>
    <tripinfo id="side_68" depart="123.00" departLane="e1_0" departPos="5.10" departSpeed="0.00" departDelay="0.00" arrival="192.00" arrivalLane="e13_0" arrivalPos="130.05" arrivalSpeed="13.67" duration="69.00" routeLength="716.52" waitingTime="0.00" waitingCount="0" stopTime="0.00" timeLoss="18.86" rerouteNo="0" devices="tripinfo_side_68" vType="typeEN" speedFactor="1.04" vaporized=""/>
    <tripinfo id="sides_73" depart="136.00" departLane="e14_0" departPos="5.10" departSpeed="0.00" departDelay="0.00" arrival="194.00" arrivalLane="e5_0" arrivalPos="259.58" arrivalSpeed="14.62" duration="58.00" routeLength="609.86" waitingTime="0.00" waitingCount="0" stopTime="0.00" timeLoss="15.97" rerouteNo="0" devices="tripinfo_sides_73" vType="typeNW" speedFactor="1.06" vaporized=""/>
    <tripinfo id="curve_35" depart="59.00" departLane="e1_0" departPos="5.10" departSpeed="0.00" departDelay="0.00" arrival="203.00" arrivalLane="e8_1" arrivalPos="165.01" arrivalSpeed="14.16" duration="144.00" routeLength="974.58" waitingTime="28.00" waitingCount="2" stopTime="0.00" timeLoss="74.82" rerouteNo="0" devices="tripinfo_curve_35" vType="typeEE" speedFactor="1.02" vaporized=""/>
    <tripinfo id="curve_29" depart="54.00" departLane="e1_0" departPos="5.10" departSpeed="0.00" departDelay="6.00" arrival="204.00" arrivalLane="e8_1" arrivalPos="165.01" arrivalSpeed="12.74" duration="150.00" routeLength="974.58" waitingTime="38.00" waitingCount="3" stopTime="0.00" timeLoss="74.58" rerouteNo="0" devices="tripinfo_curve_29" vType="typeEE" speedFactor="0.93" vaporized=""/>
    <tripinfo id="up_59" depart="120.00" departLane="e10_0" departPos="5.10" departSpeed="0.00" departDelay="23.00" arrival="205.00" arrivalLane="e13_0" arrivalPos="130.05" arrivalSpeed="13.45" duration="85.00" routeLength="737.30" waitingTime="4.00" waitingCount="1" stopTime="0.00" timeLoss="29.67" rerouteNo="0" devices="tripinfo_up_59" vType="typeWN" speedFactor="0.97" vaporized=""/>
    <tripinfo id="sides_81" depart="146.00" departLane="e14_0" departPos="5.10" departSpeed="0.00" departDelay="0.00" arrival="206.00" arrivalLane="e5_0" arrivalPos="259.58" arrivalSpeed="13.95" duration="60.00" routeLength="609.86" waitingTime="0.00" waitingCount="0" stopTime="0.00" timeLoss="15.27" rerouteNo="0" devices="tripinfo_sides_81" vType="typeNW" speedFactor="1.00" vaporized=""/>
    <tripinfo id="up_56" depart="110.00" departLane="e10_0" departPos="5.10" departSpeed="0.00" departDelay="17.00" arrival="207.00" arrivalLane="e13_0" arrivalPos="130.05" arrivalSpeed="12.58" duration="97.00" routeLength="742.22" waitingTime="14.00" waitingCount="1" stopTime="0.00" timeLoss="36.82" rerouteNo="0" devices="tripinfo_up_56" vType="typeWN" speedFactor="0.90" vaporized=""/>
    <tripinfo id="up_64" depart="130.00" departLane="e10_0" departPos="5.10" departSpeed="0.00" departDelay="14.00" arrival="208.00" arrivalLane="e13_0" arrivalPos="130.05" arrivalSpeed="13.04" duration="78.00" routeLength="742.22" waitingTime="0.00" waitingCount="0" stopTime="0.00" timeLoss="20.81" rerouteNo="0" devices="tripinfo_up_64" vType="typeWN" speedFactor="0.94" vaporized=""/>
    <tripinfo id="right_63" depart="125.00" departLane="e10_0" departPos="5.10" departSpeed="0.00" departDelay="21.00" arrival="209.00" arrivalLane="e8_0" arrivalPos="165.01" arrivalSpeed="13.77" duration="84.00" routeLength="973.54" waitingTime="0.00" waitingCount="0" stopTime="0.00" timeLoss="13.32" rerouteNo="0" devices="tripinfo_right_63" vType="typeWE" speedFactor="0.99" vaporized=""/>
    <tripinfo id="up_67" depart="141.00" departLane="e10_0" departPos="5.10" departSpeed="0.00" departDelay="20.00" arrival="212.00" arrivalLane="e13_0" arrivalPos="130.05" arrivalSpeed="12.47" duration="71.00" routeLength="742.22" waitingTime="0.00" waitingCount="0" stopTime="0.00" timeLoss="11.88" rerouteNo="0" devices="tripinfo_up_67" vType="typeWN" speedFactor="0.91" vaporized=""/>
    <tripinfo id="up_69" depart="146.00" departLane="e10_0" departPos="5.10" departSpeed="0.00" departDelay="22.00" arrival="212.00" arrivalLane="e13_1" arrivalPos="130.05" arrivalSpeed="14.22" duration="66.00" routeLength="742.22" waitingTime="0.00" waitingCount="0" stopTime="0.00" timeLoss="12.99" rerouteNo="0" devices="tripinfo_up_69" vType="typeWN" speedFactor="1.02" vaporized=""/>
    <tripinfo id="sides_82" depart="151.00" departLane="e14_0" departPos="5.10" departSpeed="0.00" departDelay="4.00" arrival="213.00" arrivalLane="e5_0" arrivalPos="259.58" arrivalSpeed="14.16" duration="62.00" routeLength="609.86" waitingTime="0.00" waitingCount="0" stopTime="0.00" timeLoss="18.05" rerouteNo="0" devices="tripinfo_sides_82" vType="typeNW" speedFactor="1.02" vaporized=""/>
    <tripinfo id="sides_87" depart="156.00" departLane="e14_0" departPos="5.10" departSpeed="0.00" departDelay="5.00" arrival="214.00" arrivalLane="e5_1" arrivalPos="259.58" arrivalSpeed="14.22" duration="58.00" routeLength="609.86" waitingTime="0.00" waitingCount="0" stopTime="0.00" timeLoss="15.47" rerouteNo="0" devices="tripinfo_sides_87" vType="typeNW" speedFactor="1.04" vaporized=""/>
    <tripinfo id="side_80" depart="152.00" departLane="e1_0" departPos="5.10" departSpeed="0.00" departDelay="7.00" arrival="217.00" arrivalLane="e13_0" arrivalPos="130.05" arrivalSpeed="14.18" duration="65.00" routeLength="716.52" waitingTime="0.00" waitingCount="0" stopTime="0.00" timeLoss="14.53" rerouteNo="0" devices="tripinfo_side_80" vType="typeEN" speedFactor="1.03" vaporized=""/>
    <tripinfo id="curve_53" depart="100.00" departLane="e1_0" departPos="5.10" departSpeed="0.00" departDelay="14.00" arrival="220.00" arrivalLane="e8_1" arrivalPos="165.01" arrivalSpeed="14.99" duration="120.00" routeLength="974.58" waitingTime="13.00" waitingCount="3" stopTime="0.00" timeLoss="56.43" rerouteNo="0" devices="tripinfo_curve_53" vType="typeEE" speedFactor="1.10" vaporized=""/>
    <tripinfo id="curve_44" depart="75.00" departLane="e1_0" departPos="5.10" departSpeed="0.00" departDelay="2.00" arrival="221.00" arrivalLane="e8_1" arrivalPos="165.01" arrivalSpeed="14.45" duration="146.00" routeLength="974.58" waitingTime="36.00" waitingCount="3" stopTime="0.00" timeLoss="78.42" rerouteNo="0" devices="tripinfo_curve_44" vType="typeEE" speedFactor="1.04" vaporized=""/>
    <tripinfo id="side_84" depart="157.00" departLane="e1_0" departPos="5.10" departSpeed="0.00" departDelay="9.00" arrival="223.00" arrivalLane="e13_0" arrivalPos="130.05" arrivalSpeed="14.56" duration="66.00" routeLength="716.52" waitingTime="0.00" waitingCount="0" stopTime="0.00" timeLoss="20.46" rerouteNo="0" devices="tripinfo_side_84" vType="typeEN" speedFactor="1.15" vaporized=""/>
    <tripinfo id="right_65" depart="136.00" departLane="e10_0" departPos="5.10" departSpeed="0.00" departDelay="18.00" arrival="226.00" arrivalLane="e8_0" arrivalPos="165.01" arrivalSpeed="12.15" duration="90.00" routeLength="973.54" waitingTime="0.00" waitingCount="0" stopTime="0.00" timeLoss="10.46" rerouteNo="0" devices="tripinfo_right_65" vType="typeWE" speedFactor="0.88" vaporized=""/>
    <tripinfo id="left_77" depart="142.00" departLane="e1_0" departPos="5.10" departSpeed="0.00" departDelay="0.00" arrival="227.00" arrivalLane="e5_0" arrivalPos="259.58" arrivalSpeed="13.67" duration="85.00" routeLength="971.39" waitingTime="0.00" waitingCount="0" stopTime="0.00" timeLoss="13.45" rerouteNo="0" devices="tripinfo_left_77" vType="typeWE" speedFactor="0.98" vaporized=""/>
    <tripinfo id="right_70" depart="151.00" departLane="e10_0" departPos="5.10" departSpeed="0.00" departDelay="25.00" arrival="233.00" arrivalLane="e8_0" arrivalPos="165.01" arrivalSpeed="14.24" duration="82.00" routeLength="973.54" waitingTime="0.00" waitingCount="0" stopTime="0.00" timeLoss="13.43" rerouteNo="0" devices="tripinfo_right_70" vType="typeWE" speedFactor="1.02" vaporized=""/>
    <tripinfo id="curve_78" depart="147.00" departLane="e1_0" departPos="5.10" departSpeed="0.00" departDelay="5.00" arrival="238.00" arrivalLane="e8_2" arrivalPos="165.01" arrivalSpeed="14.01" duration="91.00" routeLength="974.58" waitingTime="0.00" waitingCount="0" stopTime="0.00" timeLoss="21.69" rerouteNo="0" devices="tripinfo_curve_78" vType="typeEE" speedFactor="1.01" vaporized=""/>
    <tripinfo id="sides_103" depart="179.00" departLane="e14_0" departPos="5.10" departSpeed="0.00" departDelay="3.00" arrival="240.00" arrivalLane="e5_0" arrivalPos="259.58" arrivalSpeed="13.23" duration="61.00" routeLength="609.86" waitingTime="0.00" waitingCount="0" stopTime="0.00" timeLoss="14.15" rerouteNo="0" devices="tripinfo_sides_103" vType="typeNW" speedFactor="0.95" vaporized=""/>
    <tripinfo id="side_96" depart="177.00" departLane="e1_0" departPos="5.10" departSpeed="0.00" departDelay="11.00" arrival="242.00" arrivalLane="e13_0" arrivalPos="130.05" arrivalSpeed="13.81" duration="65.00" routeLength="716.52" waitingTime="0.00" waitingCount="0" stopTime="0.00" timeLoss="13.50" rerouteNo="0" devices="tripinfo_side_96" vType="typeEN" speedFactor="1.01" vaporized=""/>
    <tripinfo id="curve_62" depart="109.00" departLane="e1_0" departPos="5.10" departSpeed="0.00" departDelay="7.00" arrival="245.00" arrivalLane="e8_1" arrivalPos="165.01" arrivalSpeed="13.95" duration="136.00" routeLength="974.58" waitingTime="27.00" waitingCount="2" stopTime="0.00" timeLoss="66.63" rerouteNo="0" devices="tripinfo_curve_62" vType="typeEE" speedFactor="1.02" vaporized=""/>
    <tripinfo id="right_74" depart="167.00" departLane="e10_0" departPos="5.10" departSpeed="0.00" departDelay="29.00" arrival="252.00" arrivalLane="e8_0" arrivalPos="165.01" arrivalSpeed="13.29" duration="85.00" routeLength="973.54" waitingTime="0.00" waitingCount="0" stopTime="0.00" timeLoss="11.90" rerouteNo="0" devices="tripinfo_right_74" vType="typeWE" speedFactor="0.96" vaporized=""/>